 ----------------------------------------------------------------------
 # opt b3lyp/genecp scrf=(solvent=water) 10f 6d scf=maxcycles=500 symme
 try=none
 ----------------------------------------------------------------------

 -------------------
 7tg6+283Cl_3BP_MINg
 -------------------
 Symbolic Z-matrix:
 Charge =    -6 Multiplicity =     1

 SCF Done:  E(RB3LYP) =  -8447.37313496     A.U. after   16 cycles
 SCF Done:  E(RB3LYP) =  -8447.41421530     A.U. after   11 cycles
 SCF Done:  E(RB3LYP) =  -8447.47380755     A.U. after   12 cycles
 SCF Done:  E(RB3LYP) =  -8447.52568575     A.U. after   12 cycles
 SCF Done:  E(RB3LYP) =  -8447.55146291     A.U. after   10 cycles
 SCF Done:  E(RB3LYP) =  -8447.56377434     A.U. after   10 cycles
 SCF Done:  E(RB3LYP) =  -8447.56719334     A.U. after    9 cycles
 SCF Done:  E(RB3LYP) =  -8447.57247235     A.U. after   10 cycles
 SCF Done:  E(RB3LYP) =  -8447.57748555     A.U. after   10 cycles
 SCF Done:  E(RB3LYP) =  -8447.57919663     A.U. after    9 cycles
 SCF Done:  E(RB3LYP) =  -8447.58535625     A.U. after    9 cycles
 SCF Done:  E(RB3LYP) =  -8447.58557964     A.U. after    9 cycles
 SCF Done:  E(RB3LYP) =  -8447.58575810     A.U. after    8 cycles
 SCF Done:  E(RB3LYP) =  -8447.58581435     A.U. after   10 cycles
 SCF Done:  E(RB3LYP) =  -8447.58582884     A.U. after    8 cycles
 SCF Done:  E(RB3LYP) =  -8447.58583368     A.U. after    7 cycles
 SCF Done:  E(RB3LYP) =  -8447.58583517     A.U. after    6 cycles
 SCF Done:  E(RB3LYP) =  -8447.58583525     A.U. after    6 cycles
 SCF Done:  E(RB3LYP) =  -8447.58583528     A.U. after    5 cycles
 SCF Done:  E(RB3LYP) =  -8447.58583530     A.U. after    5 cycles
 Optimization completed.
    -- Stationary point found.

                          Input orientation:
 ---------------------------------------------------------------------
 Center     Atomic      Atomic             Coordinates (Angstroms)
 Number     Number       Type             X           Y           Z
 ---------------------------------------------------------------------
      1         15           0        4.252000    4.211000  -29.566000
      2          8           0        4.052661    3.933689  -31.031533
      3          8           0        3.482706    5.445311  -29.179882
      4          8           0        3.728000    2.971000  -28.715000
      5          6           0        2.840000    3.187000  -27.645000
      6          1           0        2.017000    2.478000  -27.735000
      7          1           0        2.451000    4.203000  -27.707000
      8          6           0        3.522000    2.994000  -26.300000
      9          1           0        3.902000    1.976000  -26.212000
     10          8           0        4.725000    3.848000  -26.201000
     11          6           0        4.645000    4.488000  -24.950000
     12          1           0        5.065000    3.783000  -24.232000
     13          7           0        5.544000    5.688000  -24.812000
     14          6           0        5.575000    6.637000  -25.799000
     15          1           0        4.903000    6.514000  -26.635000
     16          6           0        6.342000    7.737000  -25.744000
     17          6           0        6.384000    8.724000  -26.869000
     18          1           0        5.386000    9.128000  -27.036000
     19          1           0        7.067000    9.535000  -26.616000
     20          1           0        6.730000    8.228000  -27.776000
     21          6           0        7.123000    7.967000  -24.555000
     22          8           0        7.835000    8.955000  -24.416000
     23          7           0        7.010000    6.997000  -23.585000
     24          1           0        7.609000    7.147000  -22.687000
     25          6           0        6.251000    5.864000  -23.635000
     26          8           0        6.231000    5.075000  -22.714000
     27          6           0        2.641000    3.404000  -25.109000
     28          1           0        1.575000    3.463000  -25.329000
     29          6           0        3.176000    4.792000  -24.826000
     30          1           0        2.455000    5.536000  -25.164000
     31          1           0        3.341000    4.907000  -23.755000
     32          8           0        2.839000    2.532000  -23.967000
     33         15           0        2.950000    3.182000  -22.493000
     34          8           0        1.948000    4.267000  -22.345000
     35          8           0        4.384000    3.373000  -22.192000
     36          8           0        2.479000    2.077000  -21.457000
     37          6           0        1.639000    2.478000  -20.351000
     38          1           0        1.346000    1.556000  -19.848000
     39          1           0        0.751000    2.980000  -20.735000
     40          6           0        2.350000    3.406000  -19.338000
     41          1           0        2.980000    2.785000  -18.701000
     42          8           0        3.278000    4.321000  -19.987000
     43          6           0        3.424000    5.488000  -19.204000
     44          1           0        4.255000    5.400000  -18.504000
     45          7           0        3.848000    6.687000  -20.102000
     46          6           0        3.384000    6.780000  -21.411000
     47          1           0        2.707000    6.015000  -21.761000
     48          6           0        3.706000    7.800000  -22.249000
     49          6           0        3.195000    7.884000  -23.653000
     50          1           0        2.106000    7.922000  -23.642000
     51          1           0        3.585000    8.784000  -24.129000
     52          1           0        3.522000    7.007000  -24.212000
     53          6           0        4.579000    8.825000  -21.765000
     54          8           0        4.920000    9.781000  -22.462000
     55          7           0        5.001000    8.669000  -20.463000
     56          1           0        5.717000    8.329000  -18.131000
     57          6           0        4.691000    7.657000  -19.590000
     58          8           0        5.132000    7.639000  -18.453000
     59          6           0        1.403000    4.300000  -18.539000
     60          1           0        0.454000    4.396000  -19.067000
     61          6           0        2.097000    5.686000  -18.466000
     62          1           0        1.341000    6.467000  -18.383000
     63          1           0        2.751000    5.720000  -17.595000
     64          8           0        1.126000    3.726000  -17.235000
     65         15           0        2.200000    3.763000  -16.033000
     66          8           0        3.555000    3.434000  -16.526000
     67          8           0        1.611000    2.928000  -14.966000
     68          8           0        2.182000    5.277000  -15.511000
     69          6           0        3.406000    5.926000  -15.154000
     70          1           0        4.032000    5.962000  -16.045000
     71          1           0        3.928000    5.384000  -14.365000
     72          6           0        3.126000    7.334000  -14.687000
     73          1           0        3.844000    7.604000  -13.913000
     74          8           0        3.377000    8.280000  -15.763000
     75          6           0        2.345000    9.233000  -15.766000
     76          1           0        2.573000   10.084000  -15.123000
     77          7           0        2.265000    9.854000  -17.134000
     78          6           0        1.551000    9.217000  -18.130000
     79          1           0        1.030000    8.308000  -17.870000
     80          6           0        1.431000    9.695000  -19.379000
     81          6           0        0.650000    8.970000  -20.432000
     82          1           0       -0.386000    8.866000  -20.110000
     83          1           0        0.685000    9.534000  -21.364000
     84          1           0        1.082000    7.982000  -20.589000
     85          6           0        2.077000   10.939000  -19.693000
     86          8           0        2.016000   11.445000  -20.808000
     87          7           0        2.765000   11.525000  -18.651000
     88          1           0        3.248000   12.475000  -18.879000
     89          6           0        2.906000   11.052000  -17.374000
     90          8           0        3.549000   11.656000  -16.527000
     91          6           0        1.682000    7.561000  -14.239000
     92          1           0        1.083000    6.654000  -14.158000
     93          6           0        1.106000    8.457000  -15.343000
     94          1           0        0.290000    7.937000  -15.845000
     95          1           0        0.731000    9.381000  -14.903000
     96          8           0        1.681000    8.211000  -12.996000
     97         15           0        4.535000   20.541000  -22.025000
     98          8           0        4.619669   22.028457  -22.236484
     99          8           0        4.896315   19.831441  -23.301871
    100          8           0        5.545000   20.111000  -20.876000
    101          6           0        5.081000   20.087000  -19.529000
    102          1           0        4.364000   19.272000  -19.431000
    103          1           0        4.589000   21.033000  -19.301000
    104          6           0        6.219000   19.869000  -18.551000
    105          1           0        5.988000   20.377000  -17.615000
    106          8           0        6.279000   18.481000  -18.201000
    107          6           0        7.174000   17.828000  -19.066000
    108          1           0        7.834000   17.128000  -18.553000
    109          7           0        6.403000   16.965000  -19.949000
    110          6           0        6.144000   17.142000  -21.280000
    111          1           0        6.560000   17.986000  -21.811000
    112          7           0        5.425000   16.177000  -21.806000
    113          6           0        5.192000   15.324000  -20.739000
    114          6           0        4.487000   14.114000  -20.628000
    115          7           0        3.865000   13.531000  -21.658000
    116          1           0        3.372000   12.660000  -21.523000
    117          1           0        3.888000   13.962000  -22.571000
    118          7           0        4.454000   13.521000  -19.412000
    119          6           0        5.081000   14.101000  -18.385000
    120          1           0        5.065000   13.646000  -17.406000
    121          7           0        5.773000   15.231000  -18.368000
    122          6           0        5.785000   15.797000  -19.589000
    123          6           0        7.609000   20.199000  -19.073000
    124          1           0        7.625000   21.018000  -19.792000
    125          6           0        8.031000   18.897000  -19.771000
    126          1           0        8.322000   19.113000  -20.799000
    127          1           0        8.875000   18.456000  -19.240000
    128          8           0        8.471000   20.586000  -17.954000
    129         15           0        9.851000   19.833000  -17.581000
    130          8           0       10.366000   20.533000  -16.380000
    131          8           0       10.740000   19.706000  -18.758000
    132          8           0        9.403000   18.373000  -17.114000
    133          6           0        9.967000   17.813000  -15.956000
    134          1           0        9.283000   18.049000  -15.141000
    135          1           0       10.946000   18.241000  -15.743000
    136          6           0       10.097000   16.306000  -16.077000
    137          1           0        9.800000   15.883000  -15.117000
    138          8           0        9.135000   15.769000  -17.025000
    139          6           0        9.686000   14.568000  -17.489000
    140          1           0        9.530000   13.784000  -16.748000
    141          7           0        8.935000   14.059000  -18.681000
    142          6           0        9.003000   14.740000  -19.882000
    143          1           0        9.640000   15.611000  -19.933000
    144          6           0        8.367000   14.339000  -20.996000
    145          6           0        8.459000   15.107000  -22.281000
    146          1           0        9.500000   15.159000  -22.600000
    147          1           0        7.869000   14.605000  -23.048000
    148          1           0        8.075000   16.116000  -22.130000
    149          6           0        7.588000   13.129000  -20.931000
    150          8           0        6.974000   12.690000  -21.898000
    151          7           0        7.578000   12.497000  -19.702000
    152          1           0        7.629000   11.441000  -17.470000
    153          6           0        8.217000   12.891000  -18.561000
    154          8           0        8.139000   12.252000  -17.523000
    155          6           0       11.475000   15.795000  -16.544000
    156          1           0       12.150000   16.594000  -16.851000
    157          6           0       11.141000   14.910000  -17.758000
    158          1           0       11.746000   15.219000  -18.611000
    159          1           0       11.356000   13.868000  -17.519000
    160          8           0       12.117000   15.056000  -15.465000
    161         15           0       13.048000   13.763000  -15.738000
    162          8           0       13.727000   13.449000  -14.463000
    163          8           0       13.887000   13.933000  -16.942000
    164          8           0       12.006000   12.591000  -16.027000
    165          6           0       11.172000   12.118000  -14.987000
    166          1           0       10.195000   12.581000  -15.126000
    167          1           0       11.569000   12.395000  -14.010000
    168          6           0       11.024000   10.609000  -15.056000
    169          1           0       10.413000   10.279000  -14.216000
    170          8           0       10.250000   10.259000  -16.226000
    171          6           0       11.065000    9.634000  -17.193000
    172          1           0       10.734000    8.628000  -17.450000
    173          7           0       10.931000   10.359000  -18.460000
    174          6           0       11.451000   11.585000  -18.779000
    175          1           0       12.078000   12.109000  -18.072000
    176          7           0       11.162000   11.983000  -19.999000
    177          6           0       10.398000   10.948000  -20.512000
    178          6           0        9.778000   10.750000  -21.766000
    179          7           0        9.836000   11.632000  -22.771000
    180          1           0        9.371000   11.433000  -23.645000
    181          1           0       10.345000   12.497000  -22.655000
    182          7           0        9.092000    9.603000  -21.944000
    183          6           0        9.033000    8.722000  -20.938000
    184          1           0        8.490000    7.796000  -21.060000
    185          7           0        9.570000    8.799000  -19.723000
    186          6           0       10.245000    9.945000  -19.574000
    187          6           0       12.333000    9.833000  -15.156000
    188          1           0       13.187000   10.397000  -14.780000
    189          6           0       12.500000    9.596000  -16.654000
    190          1           0       13.467000    9.980000  -16.978000
    191          1           0       12.446000    8.527000  -16.861000
    192          8           0       12.246000    8.609000  -14.424000
    193         80           0        6.239000   10.725000  -20.584000
    194         17           0        3.639872   14.129428  -24.867913
    195         17           0        6.740792    9.696426  -17.088539
    196          1           0       13.129933    8.287577  -14.231776
    197          1           0        2.585868    8.359585  -12.711860
    198          8           0        5.915345    4.454908  -29.253125
    199          1           0        6.416773    4.317200  -30.060099
    200          8           0        2.941350   20.119743  -21.570113
    201          1           0        2.317780   20.700468  -22.012288
 ---------------------------------------------------------------------

 Alpha  occ. eigenvalues --      -77.17250     -77.17188     -77.16719     -77.16576     -77.16266
 Alpha  occ. eigenvalues --      -77.15488     -19.22287     -19.22032     -19.16088     -19.16054
 Alpha  occ. eigenvalues --      -19.15696     -19.15625     -19.15592     -19.15311     -19.15277
 Alpha  occ. eigenvalues --      -19.15104     -19.14527     -19.14504     -19.14379     -19.14247
 Alpha  occ. eigenvalues --      -19.14221     -19.14215     -19.14174     -19.14007     -19.13976
 Alpha  occ. eigenvalues --      -19.13963     -19.13925     -19.13799     -19.13689     -19.13105
 Alpha  occ. eigenvalues --      -19.12278     -19.12215     -19.10944     -19.10872     -19.05779
 Alpha  occ. eigenvalues --      -19.05748     -19.05320     -19.05107     -19.05082     -19.04648
 Alpha  occ. eigenvalues --      -19.04618     -19.04553     -19.04503     -19.04307     -19.04229
 Alpha  occ. eigenvalues --      -19.03047     -14.42224     -14.41616     -14.39741     -14.39015
 Alpha  occ. eigenvalues --      -14.38764     -14.38320     -14.38218     -14.36269     -14.35524
 Alpha  occ. eigenvalues --      -14.35236     -14.35052     -14.33027     -14.32864     -14.32657
 Alpha  occ. eigenvalues --      -14.32550     -14.32251     -14.32050     -14.31851     -10.36758
 Alpha  occ. eigenvalues --      -10.36421     -10.32629     -10.32059     -10.29873     -10.29705
 Alpha  occ. eigenvalues --      -10.29562     -10.29289     -10.29129     -10.28850     -10.28775
 Alpha  occ. eigenvalues --      -10.28569     -10.27670     -10.27284     -10.26949     -10.26861
 Alpha  occ. eigenvalues --      -10.25052     -10.24870     -10.24856     -10.24754     -10.24744
 Alpha  occ. eigenvalues --      -10.24541     -10.24528     -10.24469     -10.24443     -10.24372
 Alpha  occ. eigenvalues --      -10.24367     -10.24349     -10.24257     -10.24121     -10.23967
 Alpha  occ. eigenvalues --      -10.23868     -10.23846     -10.23656     -10.23640     -10.23592
 Alpha  occ. eigenvalues --      -10.23586     -10.23494     -10.23391     -10.23327     -10.23210
 Alpha  occ. eigenvalues --      -10.23101     -10.22985     -10.22943     -10.20710     -10.20473
 Alpha  occ. eigenvalues --      -10.20280     -10.19586     -10.19426     -10.18763     -10.18650
 Alpha  occ. eigenvalues --      -10.18595     -10.18382     -10.18271     -10.18234     -10.17751
 Alpha  occ. eigenvalues --      -10.17730     -10.17353     -10.17237     -10.16895      -6.61849
 Alpha  occ. eigenvalues --       -6.61758      -6.61614      -6.61451      -6.61128      -6.60439
 Alpha  occ. eigenvalues --       -4.78346      -4.78215      -4.78199      -4.78110      -4.78091
 Alpha  occ. eigenvalues --       -4.77939      -4.77936      -4.77903      -4.77892      -4.77813
 Alpha  occ. eigenvalues --       -4.77716      -4.77592      -4.77545      -4.77488      -4.77213
 Alpha  occ. eigenvalues --       -4.76891      -4.76845      -4.76467      -1.16773      -1.16443
 Alpha  occ. eigenvalues --       -1.07398      -1.07254      -1.06980      -1.06927      -1.06676
 Alpha  occ. eigenvalues --       -1.06081      -1.05861      -1.05745      -1.05675      -1.05467
 Alpha  occ. eigenvalues --       -1.05422      -1.05278      -1.05062      -1.05057      -1.04451
 Alpha  occ. eigenvalues --       -1.03914      -1.03452      -1.02879      -1.02763      -1.02658
 Alpha  occ. eigenvalues --       -1.02358      -1.01395      -1.01083      -1.00863      -1.00560
 Alpha  occ. eigenvalues --       -1.00155      -1.00046      -0.99098      -0.98895      -0.98795
 Alpha  occ. eigenvalues --       -0.97792      -0.97713      -0.96869      -0.96392      -0.93622
 Alpha  occ. eigenvalues --       -0.93522      -0.93312      -0.92758      -0.92685      -0.91955
 Alpha  occ. eigenvalues --       -0.91935      -0.91832      -0.91567      -0.91382      -0.90548
 Alpha  occ. eigenvalues --       -0.89674      -0.89379      -0.89367      -0.89026      -0.88722
 Alpha  occ. eigenvalues --       -0.88469      -0.88334      -0.87103      -0.86823      -0.85747
 Alpha  occ. eigenvalues --       -0.85640      -0.82333      -0.81349      -0.81239      -0.80597
 Alpha  occ. eigenvalues --       -0.78929      -0.78817      -0.78676      -0.78628      -0.78548
 Alpha  occ. eigenvalues --       -0.78467      -0.77824      -0.77558      -0.77528      -0.77325
 Alpha  occ. eigenvalues --       -0.76744      -0.76372      -0.75929      -0.75838      -0.74008
 Alpha  occ. eigenvalues --       -0.73087      -0.70925      -0.70583      -0.69940      -0.69829
 Alpha  occ. eigenvalues --       -0.69367      -0.69221      -0.68994      -0.68771      -0.68328
 Alpha  occ. eigenvalues --       -0.66983      -0.66808      -0.66515      -0.66386      -0.66063
 Alpha  occ. eigenvalues --       -0.65924      -0.65757      -0.65343      -0.64892      -0.64704
 Alpha  occ. eigenvalues --       -0.64417      -0.64042      -0.63778      -0.63598      -0.63478
 Alpha  occ. eigenvalues --       -0.63030      -0.62925      -0.61254      -0.60962      -0.60614
 Alpha  occ. eigenvalues --       -0.60567      -0.60026      -0.59923      -0.59875      -0.59799
 Alpha  occ. eigenvalues --       -0.59354      -0.59082      -0.58575      -0.57841      -0.57470
 Alpha  occ. eigenvalues --       -0.56582      -0.56488      -0.56392      -0.56135      -0.55984
 Alpha  occ. eigenvalues --       -0.55564      -0.55352      -0.54898      -0.54821      -0.54650
 Alpha  occ. eigenvalues --       -0.54136      -0.53706      -0.53417      -0.53340      -0.53304
 Alpha  occ. eigenvalues --       -0.53070      -0.52693      -0.52518      -0.52311      -0.52219
 Alpha  occ. eigenvalues --       -0.52027      -0.51705      -0.51655      -0.51437      -0.51397
 Alpha  occ. eigenvalues --       -0.51235      -0.51040      -0.50860      -0.50674      -0.50588
 Alpha  occ. eigenvalues --       -0.50230      -0.50178      -0.50139      -0.49971      -0.49789
 Alpha  occ. eigenvalues --       -0.49728      -0.49294      -0.49173      -0.49004      -0.48972
 Alpha  occ. eigenvalues --       -0.48320      -0.48248      -0.47828      -0.47745      -0.47635
 Alpha  occ. eigenvalues --       -0.47551      -0.47464      -0.47216      -0.47164      -0.47063
 Alpha  occ. eigenvalues --       -0.46928      -0.46845      -0.46673      -0.46367      -0.46209
 Alpha  occ. eigenvalues --       -0.46153      -0.45965      -0.45841      -0.45661      -0.45558
 Alpha  occ. eigenvalues --       -0.45505      -0.45104      -0.44984      -0.44858      -0.44755
 Alpha  occ. eigenvalues --       -0.44693      -0.44473      -0.44368      -0.44091      -0.43927
 Alpha  occ. eigenvalues --       -0.43656      -0.43519      -0.43330      -0.43277      -0.43116
 Alpha  occ. eigenvalues --       -0.42883      -0.42848      -0.42766      -0.42624      -0.42470
 Alpha  occ. eigenvalues --       -0.42426      -0.42301      -0.41991      -0.41911      -0.41755
 Alpha  occ. eigenvalues --       -0.41714      -0.41672      -0.41598      -0.41513      -0.41450
 Alpha  occ. eigenvalues --       -0.41174      -0.41150      -0.41010      -0.40909      -0.40862
 Alpha  occ. eigenvalues --       -0.40723      -0.40644      -0.40541      -0.40497      -0.40266
 Alpha  occ. eigenvalues --       -0.40187      -0.40105      -0.39829      -0.39785      -0.39746
 Alpha  occ. eigenvalues --       -0.39663      -0.39434      -0.39084      -0.38967      -0.38723
 Alpha  occ. eigenvalues --       -0.38616      -0.38459      -0.38359      -0.38277      -0.38077
 Alpha  occ. eigenvalues --       -0.38045      -0.37988      -0.37969      -0.37525      -0.37483
 Alpha  occ. eigenvalues --       -0.37388      -0.37362      -0.37327      -0.37079      -0.37021
 Alpha  occ. eigenvalues --       -0.36759      -0.36552      -0.36368      -0.36117      -0.36095
 Alpha  occ. eigenvalues --       -0.35892      -0.35812      -0.35567      -0.35496      -0.35258
 Alpha  occ. eigenvalues --       -0.35048      -0.34896      -0.34821      -0.34613      -0.34308
 Alpha  occ. eigenvalues --       -0.34268      -0.34099      -0.33786      -0.33689      -0.33346
 Alpha  occ. eigenvalues --       -0.33170      -0.32806      -0.32689      -0.32511      -0.32419
 Alpha  occ. eigenvalues --       -0.32183      -0.32064      -0.31865      -0.31708      -0.31620
 Alpha  occ. eigenvalues --       -0.31392      -0.31329      -0.31258      -0.31206      -0.30961
 Alpha  occ. eigenvalues --       -0.30761      -0.30628      -0.30307      -0.30197      -0.30043
 Alpha  occ. eigenvalues --       -0.29970      -0.29756      -0.29667      -0.29455      -0.29375
 Alpha  occ. eigenvalues --       -0.29320      -0.29300      -0.29197      -0.28789      -0.28761
 Alpha  occ. eigenvalues --       -0.28686      -0.28573      -0.28512      -0.28497      -0.28260
 Alpha  occ. eigenvalues --       -0.28188      -0.27983      -0.27874      -0.27687      -0.27650
 Alpha  occ. eigenvalues --       -0.27582      -0.27414      -0.27357      -0.27271      -0.27220
 Alpha  occ. eigenvalues --       -0.27188      -0.27126      -0.27095      -0.26812      -0.26716
 Alpha  occ. eigenvalues --       -0.26623      -0.26588      -0.26385      -0.26243      -0.26102
 Alpha  occ. eigenvalues --       -0.26075      -0.26029      -0.25788      -0.25443      -0.25376
 Alpha  occ. eigenvalues --       -0.25343      -0.25238      -0.25192      -0.25113      -0.25010
 Alpha  occ. eigenvalues --       -0.24883      -0.24745      -0.24609      -0.24563      -0.24054
 Alpha  occ. eigenvalues --       -0.23721      -0.23507      -0.23454      -0.22908      -0.22847
 Alpha  occ. eigenvalues --       -0.22633      -0.22514      -0.22461      -0.22298      -0.21952
 Alpha  occ. eigenvalues --       -0.21752      -0.21641      -0.21570      -0.21132      -0.21125
 Alpha  occ. eigenvalues --       -0.21014      -0.20889      -0.20723      -0.20585      -0.20531
 Alpha  occ. eigenvalues --       -0.20192
 Alpha virt. eigenvalues --       -0.03909      -0.03764      -0.03238      -0.02957      -0.02398
 Alpha virt. eigenvalues --       -0.02086      -0.01564      -0.00997      -0.00870       0.00510
 Alpha virt. eigenvalues --        0.00881       0.01994       0.02872       0.03517       0.04307

 Mulliken charges:
               1
     1  P    1.008135
     2  O   -0.697473
     3  O   -0.716493
     4  O   -0.535391
     5  C    0.043637
     6  H    0.115828
     7  H    0.125238
     8  C    0.178119
     9  H    0.110843
    10  O   -0.566066
    11  C    0.350669
    12  H    0.176256
    13  N   -0.574788
    14  C    0.117273
    15  H    0.146530
    16  C   -0.005026
    17  C   -0.382413
    18  H    0.130512
    19  H    0.127166
    20  H    0.129372
    21  C    0.592868
    22  O   -0.544074
    23  N   -0.647298
    24  H    0.321301
    25  C    0.781772
    26  O   -0.518093
    27  C    0.116464
    28  H    0.111922
    29  C   -0.260327
    30  H    0.143331
    31  H    0.150788
    32  O   -0.592920
    33  P    1.186664
    34  O   -0.751172
    35  O   -0.666881
    36  O   -0.558917
    37  C    0.036321
    38  H    0.114542
    39  H    0.106405
    40  C    0.185651
    41  H    0.126624
    42  O   -0.511849
    43  C    0.315580
    44  H    0.146074
    45  N   -0.566619
    46  C    0.146007
    47  H    0.192332
    48  C   -0.012942
    49  C   -0.387537
    50  H    0.129775
    51  H    0.132076
    52  H    0.137425
    53  C    0.659778
    54  O   -0.582272
    55  N   -0.711151
    56  H    0.328210
    57  C    0.804809
    58  O   -0.426867
    59  C    0.128291
    60  H    0.120420
    61  C   -0.236595
    62  H    0.131759
    63  H    0.137218
    64  O   -0.567326
    65  P    1.042978
    66  O   -0.722963
    67  O   -0.654479
    68  O   -0.567473
    69  C    0.063433
    70  H    0.122105
    71  H    0.116286
    72  C    0.119007
    73  H    0.118359
    74  O   -0.523396
    75  C    0.311150
    76  H    0.139877
    77  N   -0.555645
    78  C    0.153976
    79  H    0.137126
    80  C   -0.010750
    81  C   -0.388891
    82  H    0.131451
    83  H    0.134500
    84  H    0.131585
    85  C    0.610862
    86  O   -0.578116
    87  N   -0.650448
    88  H    0.344898
    89  C    0.798926
    90  O   -0.567046
    91  C    0.147076
    92  H    0.128074
    93  C   -0.226157
    94  H    0.150125
    95  H    0.132744
    96  O   -0.587465
    97  P    0.979407
    98  O   -0.702484
    99  O   -0.690927
   100  O   -0.535557
   101  C    0.060924
   102  H    0.133334
   103  H    0.117178
   104  C    0.101114
   105  H    0.126200
   106  O   -0.509714
   107  C    0.295587
   108  H    0.158076
   109  N   -0.514994
   110  C    0.279368
   111  H    0.154230
   112  N   -0.583882
   113  C    0.184809
   114  C    0.527712
   115  N   -0.653035
   116  H    0.308996
   117  H    0.269147
   118  N   -0.619349
   119  C    0.243773
   120  H    0.115532
   121  N   -0.551609
   122  C    0.516383
   123  C    0.188235
   124  H    0.123085
   125  C   -0.287270
   126  H    0.145679
   127  H    0.152917
   128  O   -0.581906
   129  P    1.036646
   130  O   -0.696719
   131  O   -0.691142
   132  O   -0.563660
   133  C    0.049968
   134  H    0.104216
   135  H    0.122797
   136  C    0.173985
   137  H    0.123323
   138  O   -0.517898
   139  C    0.297506
   140  H    0.149913
   141  N   -0.537788
   142  C    0.142243
   143  H    0.168515
   144  C    0.000979
   145  C   -0.374905
   146  H    0.128534
   147  H    0.136189
   148  H    0.137298
   149  C    0.684316
   150  O   -0.584012
   151  N   -0.710526
   152  H    0.328565
   153  C    0.821346
   154  O   -0.436594
   155  C    0.126995
   156  H    0.125469
   157  C   -0.237659
   158  H    0.149920
   159  H    0.140451
   160  O   -0.605838
   161  P    1.118018
   162  O   -0.683937
   163  O   -0.705700
   164  O   -0.584323
   165  C    0.055405
   166  H    0.110867
   167  H    0.122127
   168  C    0.140419
   169  H    0.121231
   170  O   -0.512424
   171  C    0.293791
   172  H    0.137775
   173  N   -0.518141
   174  C    0.277775
   175  H    0.164749
   176  N   -0.588111
   177  C    0.195190
   178  C    0.475863
   179  N   -0.638057
   180  H    0.304976
   181  H    0.303854
   182  N   -0.516250
   183  C    0.242351
   184  H    0.082076
   185  N   -0.551037
   186  C    0.521989
   187  C    0.140559
   188  H    0.117089
   189  C   -0.237515
   190  H    0.147588
   191  H    0.134411
   192  O   -0.587127
   193  Hg   1.086097
   194  Cl  -0.903741
   195  Cl  -0.668922
   196  H    0.330177
   197  H    0.323738
   198  O   -0.642921
   199  H    0.335170
   200  O   -0.655402
   201  H    0.341725
 Sum of Mulliken charges =  -6.00000

 Dipole moment (field-independent basis, Debye):
    X=           -172.8853    Y=           -335.8540    Z=            618.6641  Tot=            724.8672
 Quadrupole moment (field-independent basis, Debye-Ang):
   XX=          -2238.5424   YY=          -6239.2262   ZZ=         -14862.4932
   XY=          -2393.6537   XZ=           3444.1612   YZ=           7000.6627

 Normal termination of Gaussian DV at Sun Feb 16 06:56:35 2025.
